ITEM: TIMESTEP
0
ITEM: TIME
0.00
ITEM: NUMBER OF ATOMS
56508
ITEM: BOX BOUNDS pp pp ff
-54.31 54.31
-54.31 54.31
-100 11.9892
ITEM: ATOMS id type xu yu zu 
1 2 -53.7737 -51.0494 -79.2586 
2 2 -51.0668 -53.766 -79.2595 
3 2 -52.4154 -49.6982 -77.8922 
4 2 -49.7114 -52.4129 -77.8932 
5 2 -48.3554 -51.0553 -79.2573 
6 2 -45.6544 -53.7725 -79.266 
7 2 -46.9989 -49.6999 -77.8948 
8 2 -44.3031 -52.4143 -77.9054 
9 2 -42.9365 -51.0598 -79.2624 
10 2 -40.2243 -53.7756 -79.2646 
11 2 -41.5818 -49.6999 -77.9032 
12 2 -38.8662 -52.42 -77.9031 
13 2 -37.5059 -51.0603 -79.265 
14 2 -34.79 -53.7761 -79.2555 
15 2 -36.1513 -49.6873 -77.9185 
16 2 -33.4384 -52.3529 -77.9566 
17 2 -32.0551 -51.0169 -79.2967 
18 2 -29.309 -53.7177 -79.3126 
19 2 -30.6978 -49.6801 -77.9142 
20 2 -27.9592 -52.3841 -77.916 
21 2 -53.7675 -45.6256 -79.2572 
22 2 -51.059 -48.34 -79.2548 
23 2 -52.4038 -44.2768 -77.8935 
24 2 -49.6984 -46.9879 -77.8914 
25 2 -48.3395 -45.6293 -79.2518 
26 2 -45.6366 -48.3427 -79.2541 
27 2 -46.9755 -44.2781 -77.8898 
28 2 -44.2768 -46.9874 -77.892 
29 2 -42.9162 -45.6301 -79.2538 
30 2 -40.2173 -48.3484 -79.2662 
31 2 -41.553 -44.2755 -77.8925 
32 2 -38.8546 -46.9902 -77.9161 
33 2 -37.494 -45.6335 -79.2766 
34 2 -34.7808 -48.3295 -79.2693 
35 2 -36.1242 -44.2785 -77.9326 
36 2 -33.4208 -46.9711 -77.9065 
37 2 -32.0578 -45.6195 -79.268 
38 2 -29.3367 -48.3279 -79.2694 
39 2 -30.7061 -44.267 -77.8945 
40 2 -27.9887 -46.9936 -77.8786 
41 2 -53.7619 -40.2043 -79.259 
42 2 -51.0471 -42.917 -79.2543 
43 2 -52.395 -38.8577 -77.8972 
44 2 -49.6805 -41.5689 -77.8923 
45 2 -48.3269 -40.2063 -79.2537 
46 2 -45.6223 -42.9179 -79.2548 
47 2 -46.9601 -38.856 -77.8929 
48 2 -44.2609 -41.5603 -77.899 
49 2 -42.904 -40.1996 -79.2594 
50 2 -40.2038 -42.916 -79.2652 
51 2 -41.5414 -38.84 -77.9044 
52 2 -38.8451 -41.5504 -77.9181 
53 2 -37.4769 -40.1857 -79.2691 
54 2 -34.7626 -42.9089 -79.2796 
55 2 -36.1129 -38.8016 -77.9349 
56 2 -33.3806 -41.5522 -77.9417 
57 2 -32.0394 -40.183 -79.2968 
58 2 -29.3525 -42.9137 -79.2743 
59 2 -30.6977 -38.8171 -77.9327 
60 2 -28.007 -41.5383 -77.9244 
61 2 -53.7601 -34.7837 -79.2626 
62 2 -51.0411 -37.4957 -79.258 
63 2 -52.393 -33.4369 -77.9024 
64 2 -49.6733 -36.1479 -77.8974 
65 2 -48.322 -34.784 -79.259 
66 2 -45.6086 -37.4916 -79.2551 
67 2 -46.955 -33.4341 -77.8991 
68 2 -44.2426 -36.1391 -77.8953 
69 2 -42.8933 -34.7733 -79.2584 
70 2 -40.1867 -37.4761 -79.2652 
71 2 -41.5305 -33.4153 -77.9008 
72 2 -38.8299 -36.1018 -77.9192 
73 2 -37.4684 -34.7479 -79.276 
74 2 -34.752 -37.4508 -79.2901 
75 2 -36.1101 -33.387 -77.9179 
76 2 -33.3972 -36.0935 -77.9248 
77 2 -32.0442 -34.734 -79.284 
78 2 -29.3481 -37.4508 -79.292 
79 2 -30.6907 -33.3732 -77.9223 
80 2 -27.9967 -36.0801 -77.9418 
81 2 -53.7625 -29.3621 -79.2702 
82 2 -51.0414 -32.0754 -79.2654 
83 2 -52.3956 -28.014 -77.9134 
84 2 -49.6738 -30.7273 -77.907 
85 2 -48.3241 -29.3638 -79.2698 
86 2 -45.6053 -32.0692 -79.2614 
87 2 -46.9564 -28.0153 -77.9126 
88 2 -44.2396 -30.7175 -77.902 
89 2 -42.8921 -29.3536 -79.2664 
90 2 -40.18 -32.0532 -79.2648 
91 2 -41.527 -28.0028 -77.907 
92 2 -38.8176 -30.698 -77.9057 
93 2 -37.4697 -29.3367 -79.2718 
94 2 -34.7547 -32.0304 -79.2775 
95 2 -36.1107 -27.9799 -77.9134 
96 2 -33.3985 -30.6743 -77.9139 
97 2 -32.0455 -29.3142 -79.2753 
98 2 -29.3367 -32.0117 -79.2812 
99 2 -30.6904 -27.9543 -77.9148 
100 2 -27.9832 -30.6475 -77.9224 
101 2 -53.7647 -23.932 -79.2793 
102 2 -51.0455 -26.6521 -79.2769 
103 2 -52.4002 -22.5807 -77.9252 
104 2 -49.6782 -25.3034 -77.922 
105 2 -48.3287 -23.9391 -79.2837 
106 2 -45.6091 -26.6506 -79.2759 
107 2 -46.96 -22.5916 -77.9294 
108 2 -44.241 -25.303 -77.9192 
109 2 -42.8971 -23.9338 -79.2814 
110 2 -40.1826 -26.6381 -79.2736 
111 2 -41.5329 -22.5817 -77.9257 
112 2 -38.8207 -25.2844 -77.916 
113 2 -37.4756 -23.9196 -79.2819 
114 2 -34.7606 -26.6186 -79.2774 
115 2 -36.1189 -22.5614 -77.9252 
116 2 -33.4046 -25.2582 -77.9206 
117 2 -32.0487 -23.9 -79.2818 
118 2 -29.3322 -26.5993 -79.2773 
119 2 -30.6922 -22.5397 -77.9255 
120 2 -27.974 -25.2389 -77.9212 
121 2 -53.7613 -18.4879 -79.282 
122 2 -51.0478 -21.2191 -79.2865 
123 2 -49.6802 -19.8702 -77.9334 
124 2 -48.3278 -18.4993 -79.2856 
125 2 -45.6126 -21.2204 -79.2863 
126 2 -44.2469 -19.8681 -77.9319 
127 2 -42.9013 -18.4971 -79.2898 
128 2 -40.1891 -21.2128 -79.2877 
129 2 -38.8312 -19.8553 -77.9321 
130 2 -37.4828 -18.4917 -79.2942 
131 2 -34.7673 -21.2003 -79.2883 
132 2 -33.4121 -19.8409 -77.9322 
133 2 -32.0512 -18.4836 -79.2907 
134 2 -29.3286 -21.1857 -79.2823 
135 2 -27.967 -19.8324 -77.9217 
136 2 -53.7791 -53.7662 -76.5319 
137 2 -53.779 -51.0583 -73.7982 
138 2 -51.0743 -53.7792 -73.795 
139 2 -51.0653 -51.0586 -76.5255 
140 2 -52.4228 -52.4157 -75.1618 
141 2 -52.419 -49.7092 -72.4292 
142 2 -49.7178 -52.4308 -72.4235 
143 2 -49.7059 -49.7078 -75.1587 
144 2 -48.3634 -53.7768 -76.5293 
145 2 -48.3618 -51.0734 -73.7901 
146 2 -45.6661 -53.7952 -73.7991 
147 2 -45.6558 -51.0659 -76.5318 
148 2 -47.0085 -52.4244 -75.1626 
149 2 -47.0029 -49.7258 -72.4202 
150 2 -44.3131 -52.4468 -72.4296 
151 2 -44.3031 -49.7078 -75.1705 
152 2 -42.9628 -53.7866 -76.5506 
153 2 -42.9724 -51.0867 -73.8126 
154 2 -40.2937 -53.809 -73.8552 
155 2 -40.2377 -51.0677 -76.5444 
156 2 -41.619 -52.4215 -75.1981 
157 2 -41.6291 -49.728 -72.4503 
158 2 -38.9679 -52.4188 -72.5338 
159 2 -38.8931 -49.69 -75.192 
160 2 -37.5143 -53.7833 -76.5367 
161 2 -37.5481 -51.0389 -73.8268 
162 2 -34.8225 -53.7108 -73.8259 
163 2 -34.7972 -51.0363 -76.5562 
164 2 -36.181 -52.3768 -75.1952 
165 2 -36.1793 -49.6285 -72.5169 
166 2 -33.4055 -52.374 -72.5097 
167 2 -33.4248 -49.685 -75.2028 
168 2 -32.0117 -53.6525 -76.65 
169 2 -32.0492 -51.0383 -73.8617 
170 2 -29.3367 -53.7443 -73.8204 
171 2 -29.3248 -51.0308 -76.5608 
172 2 -30.6719 -52.3801 -75.2058 
173 2 -30.7536 -49.7119 -72.424 
174 2 -28.0067 -52.4364 -72.4113 
175 2 -28.0054 -49.7137 -75.1375 
176 2 -53.7709 -48.3418 -76.529 
177 2 -53.7662 -45.637 -73.8034 
178 2 -51.0585 -48.3519 -73.7914 
179 2 -51.0511 -45.6339 -76.525 
180 2 -52.4081 -46.9934 -75.1631 
181 2 -52.3995 -44.2915 -72.4387 
182 2 -49.6934 -47.0044 -72.4246 
183 2 -49.6849 -44.2858 -75.1621 
184 2 -48.3504 -48.348 -76.5236 
185 2 -48.3366 -45.6417 -73.7876 
186 2 -45.6541 -48.3633 -73.7914 
187 2 -45.6262 -45.635 -76.5185 
188 2 -46.9898 -46.995 -75.1607 
189 2 -46.9687 -44.2916 -72.4244 
190 2 -44.3018 -47.0097 -72.4257 
191 2 -44.2582 -44.2833 -75.156 
192 2 -42.9322 -48.3501 -76.5248 
193 2 -42.9278 -45.6543 -73.7732 
194 2 -40.2423 -48.3659 -73.7876 
195 2 -40.1994 -45.6481 -76.5351 
196 2 -41.5716 -46.9927 -75.1605 
197 2 -41.5581 -44.3148 -72.3895 
198 2 -38.8737 -47.0356 -72.4019 
199 2 -38.7984 -44.3117 -75.1814 
200 2 -37.5119 -48.3475 -76.5494 
201 2 -37.5078 -45.7112 -73.7907 
202 2 -34.7664 -48.3132 -73.8407 
203 2 -34.7814 -45.6168 -76.5404 
204 2 -36.1418 -46.9937 -75.2023 
205 2 -36.0811 -44.5197 -72.3809 
206 2 -33.3852 -47.0251 -72.4271 
207 2 -33.4495 -44.2531 -75.1466 
208 2 -32.0598 -48.3282 -76.5504 
209 2 -32.0743 -45.6229 -73.7913 
210 2 -29.3809 -48.3588 -73.781 
211 2 -29.3572 -45.6326 -76.5261 
212 2 -30.7166 -46.9844 -75.1589 
213 2 -30.7145 -44.277 -72.4162 
214 2 -28.0428 -47.0122 -72.3919 
215 2 -28.0154 -44.2782 -75.1486 
216 2 -53.7623 -42.9218 -76.5337 
217 2 -53.7566 -40.2234 -73.8165 
218 2 -51.0416 -42.9324 -73.8008 
219 2 -51.0383 -40.2153 -76.5319 
220 2 -52.3943 -41.5765 -75.1719 
221 2 -52.3834 -38.8822 -72.4582 
222 2 -49.67 -41.5875 -72.4401 
223 2 -49.6676 -38.8699 -75.1716 
224 2 -48.3268 -42.9243 -76.5221 
225 2 -48.3131 -40.2238 -73.7992 
226 2 -45.605 -42.9291 -73.7827 
227 2 -45.6049 -40.2094 -76.5224 
228 2 -46.9561 -41.5765 -75.1606 
229 2 -46.9392 -38.8783 -72.4393 
230 2 -44.2302 -41.5807 -72.4199 
231 2 -44.2341 -38.8598 -75.1608 
232 2 -42.9138 -42.9163 -76.5323 
233 2 -42.8785 -40.2108 -73.7829 
234 2 -40.3229 -43.0795 -73.9319 
235 2 -40.1869 -40.1954 -76.5394 
236 2 -41.5496 -41.5468 -75.1806 
237 2 -41.514 -38.8424 -72.4392 
238 2 -36.4596 -41.5515 -72.4071 
239 2 -38.8533 -38.7882 -75.2135 
240 2 -37.4954 -42.9344 -76.5867 
241 2 -37.2868 -39.9894 -73.9781 
242 2 -34.8662 -42.8964 -73.7517 
243 2 -34.7012 -40.1424 -76.6229 
244 2 -36.0781 -41.536 -75.3767 
245 2 -36.054 -38.5866 -72.447 
246 2 -33.3614 -41.5476 -72.4236 
247 2 -33.3836 -38.804 -75.1968 
248 2 -32.0733 -42.9114 -76.5297 
249 2 -32.052 -40.1754 -73.8152 
250 2 -29.3741 -42.9146 -73.7975 
251 2 -29.3671 -40.1865 -76.5621 
252 2 -30.7092 -41.5467 -75.1788 
253 2 -30.6971 -38.8172 -72.4491 
254 2 -28.0019 -41.5535 -72.4561 
255 2 -28.0165 -38.8109 -75.2191 
256 2 -53.7564 -37.5039 -76.5399 
257 2 -53.7493 -34.8069 -73.8249 
258 2 -51.029 -37.5175 -73.8158 
259 2 -51.0335 -34.7941 -76.5395 
260 2 -52.3861 -36.1592 -75.1804 
261 2 -52.3755 -33.4634 -72.4687 
262 2 -49.6546 -36.175 -72.4578 
263 2 -49.6641 -33.447 -75.1803 
264 2 -48.3157 -37.5031 -76.5304 
265 2 -48.3054 -34.8028 -73.8137 
266 2 -45.5886 -37.5064 -73.7974 
267 2 -45.5961 -34.7862 -76.5303 
268 2 -46.9454 -36.1555 -75.1708 
269 2 -46.9357 -33.4542 -72.4548 
270 2 -44.2213 -36.1516 -72.4394 
271 2 -44.2298 -33.433 -75.1704 
272 2 -42.8853 -37.4896 -76.5243 
273 2 -42.8709 -34.7775 -73.7942 
274 2 -40.1641 -37.4673 -73.7879 
275 2 -40.1719 -34.7609 -76.5302 
276 2 -41.5228 -36.1267 -75.1666 
277 2 -41.5008 -33.4252 -72.4328 
278 2 -38.8039 -36.1006 -72.4279 
279 2 -38.8058 -33.4053 -75.1692 
280 2 -37.4639 -37.4405 -76.5626 
281 2 -37.443 -34.7465 -73.7963 
282 2 -34.6779 -37.3649 -73.8532 
283 2 -34.741 -34.7269 -76.5604 
284 2 -36.0992 -36.0748 -75.2025 
285 2 -36.0756 -33.3978 -72.4238 
286 2 -33.3519 -36.0626 -72.4307 
287 2 -33.3865 -33.3801 -75.1835 
288 2 -32.0362 -37.4499 -76.5679 
289 2 -32.0185 -34.7314 -73.8279 
290 2 -29.3547 -37.4611 -73.8348 
291 2 -29.336 -34.7306 -76.564 
292 2 -30.6871 -36.0927 -75.2028 
293 2 -30.6555 -33.4001 -72.4616 
294 2 -27.9859 -36.1081 -72.485 
295 2 -27.9714 -33.3768 -75.2094 
296 2 -53.7556 -32.0834 -76.5462 
297 2 -53.7507 -29.3835 -73.8352 
298 2 -51.0269 -32.0933 -73.826 
299 2 -51.0377 -29.3746 -76.5531 
300 2 -52.3868 -30.7366 -75.1891 
301 2 -52.3844 -28.0322 -72.4821 
302 2 -49.6602 -30.7429 -72.4677 
303 2 -49.6699 -28.0263 -75.1977 
304 2 -48.3141 -32.0807 -76.5404 
305 2 -48.3109 -29.3771 -73.828 
306 2 -45.587 -32.0814 -73.8101 
307 2 -45.5977 -29.3655 -76.5417 
308 2 -46.947 -30.7314 -75.1804 
309 2 -46.9496 -28.0259 -72.4648 
310 2 -44.2189 -30.7312 -72.4493 
311 2 -44.2309 -28.0167 -75.18 
312 2 -42.8802 -32.0649 -76.5301 
313 2 -42.8684 -29.3618 -73.806 
314 2 -40.1494 -32.0555 -73.7907 
315 2 -40.1677 -29.3488 -76.534 
316 2 -41.5125 -30.7144 -75.1677 
317 2 -41.4997 -28.0133 -72.4415 
318 2 -38.7782 -30.7058 -72.4243 
319 2 -38.8032 -27.9968 -75.1717 
320 2 -37.4579 -32.0434 -76.5364 
321 2 -37.4398 -29.3362 -73.794 
322 2 -34.7383 -32.0347 -73.8031 
323 2 -34.754 -29.3269 -76.5444 
324 2 -36.0974 -30.6882 -75.1729 
325 2 -36.0808 -27.978 -72.4264 
326 2 -33.383 -30.6743 -72.4382 
327 2 -33.4019 -27.9624 -75.1875 
328 2 -32.0377 -32.0207 -76.5488 
329 2 -32.0479 -29.3128 -73.8234 
330 2 -29.3171 -32.0351 -73.8367 
331 2 -29.3321 -29.2996 -76.5463 
332 2 -30.6815 -30.6657 -75.183 
333 2 -30.7041 -27.9163 -72.4953 
334 2 -27.9107 -30.7001 -72.5134 
335 2 -27.9747 -27.9319 -75.1935 
336 2 -53.7603 -26.6598 -76.5604 
337 2 -53.7613 -23.9545 -73.8584 
338 2 -51.0384 -26.6739 -73.8503 
339 2 -51.0449 -23.9498 -76.572 
340 2 -52.3949 -25.3096 -75.2074 
341 2 -52.3999 -22.6084 -72.5025 
342 2 -49.675 -25.3287 -72.4924 
343 2 -49.6769 -22.6036 -75.2186 
344 2 -48.3207 -26.6633 -76.5603 
345 2 -48.324 -23.9693 -73.8581 
346 2 -45.5957 -26.6641 -73.8267 
347 2 -45.6045 -23.9522 -76.5669 
348 2 -46.9518 -25.3175 -75.204 
349 2 -46.9479 -22.627 -72.5112 
350 2 -44.2281 -25.3154 -72.4667 
351 2 -44.232 -22.6073 -75.2145 
352 2 -42.8845 -26.6524 -76.5458 
353 2 -42.8805 -23.952 -73.8318 
354 2 -40.1571 -26.6454 -73.8069 
355 2 -40.18 -23.9356 -76.5552 
356 2 -41.518 -25.3037 -75.1854 
357 2 -41.5166 -22.6008 -72.4721 
358 2 -38.7975 -25.2928 -72.439 
359 2 -38.8221 -22.5803 -75.1963 
360 2 -37.4642 -26.6323 -76.5442 
361 2 -37.4686 -23.9281 -73.8204 
362 2 -34.7482 -26.6147 -73.8081 
363 2 -34.7653 -23.9124 -76.5562 
364 2 -36.1081 -25.2738 -75.1841 
365 2 -36.1239 -22.566 -72.4564 
366 2 -33.4003 -25.2459 -72.4468 
367 2 -33.4149 -22.5486 -75.1995 
368 2 -32.0479 -26.6031 -76.5508 
369 2 -32.0576 -23.8908 -73.8274 
370 2 -29.329 -26.565 -73.8357 
371 2 -29.3324 -23.8854 -76.5605 
372 2 -30.6964 -25.2316 -75.199 
373 2 -30.7128 -22.5153 -72.4762 
374 2 -27.9853 -25.2025 -72.4594 
375 2 -27.9734 -22.5308 -75.1998 
376 2 -53.7637 -21.2226 -76.5741 
377 2 -53.764 -18.5137 -73.8726 
378 2 -51.0497 -21.2527 -73.8729 
379 2 -51.0452 -18.515 -76.5844 
380 2 -52.3992 -19.8734 -75.2213 
381 2 -49.6768 -19.9094 -72.5272 
382 2 -48.3258 -21.2395 -76.5795 
383 2 -48.32 -18.5465 -73.8869 
384 2 -45.5996 -21.2597 -73.8705 
385 2 -45.6048 -18.5119 -76.5773 
386 2 -46.9511 -19.8951 -75.2313 
387 2 -44.2149 -19.9191 -72.5316 
388 2 -42.8923 -21.2292 -76.5708 
389 2 -42.883 -18.5161 -73.8669 
390 2 -40.1837 -21.2289 -73.8413 
391 2 -40.1897 -18.5002 -76.5764 
392 2 -41.5288 -19.8745 -75.2179 
393 2 -38.8385 -19.8676 -72.4781 
394 2 -37.4823 -21.2144 -76.5658 
395 2 -37.4994 -18.5052 -73.8504 
396 2 -34.7845 -21.2095 -73.8369 
397 2 -34.7833 -18.4972 -76.5753 
398 2 -36.1332 -19.8543 -75.2065 
399 2 -33.4404 -19.8478 -72.4771 
400 2 -32.0592 -21.1943 -76.5666 
401 2 -32.086 -18.5039 -73.8541 
402 2 -29.3472 -21.1844 -73.8477 
403 2 -29.3352 -18.479 -76.5688 
404 2 -30.7027 -19.8343 -75.2126 
405 2 -27.9913 -19.8432 -72.4802 
406 2 -53.7917 -53.7776 -71.0681 
407 2 -53.7973 -51.0649 -68.3366 
408 2 -51.0937 -53.7986 -68.3259 
409 2 -51.0739 -51.0739 -71.0583 
410 2 -52.4367 -52.4278 -69.6941 
411 2 -52.4409 -49.7146 -66.9625 
412 2 -49.7367 -52.4613 -66.9419 
413 2 -49.7129 -49.729 -69.6856 
414 2 -48.3745 -53.7994 -71.0556 
415 2 -48.3764 -51.1053 -68.3136 
416 2 -45.6822 -53.8348 -68.3029 
417 2 -45.6656 -51.1004 -71.0513 
418 2 -47.0168 -52.4597 -69.678 
419 2 -47.0084 -49.7624 -66.9478 
420 2 -44.3177 -52.5108 -66.9212 
421 2 -44.3034 -49.7599 -69.679 
422 2 -42.9806 -53.8241 -71.0606 
423 2 -42.9812 -51.1514 -68.3042 
424 2 -40.3297 -53.8943 -68.2934 
425 2 -40.3174 -51.1365 -71.1076 
426 2 -41.6248 -52.4926 -69.6824 
427 2 -41.6377 -49.8269 -66.9049 
428 2 -39.1508 -52.6853 -66.6901 
429 2 -39.0269 -49.7469 -69.7575 
430 2 -37.648 -53.8392 -71.2382 
431 2 -38.2615 -50.9299 -67.8954 
432 2 -34.8007 -53.8612 -67.9193 
433 2 -34.6726 -50.8846 -71.2551 
434 2 -36.2952 -52.2066 -70.3597 
435 2 -35.5962 -50.1522 -66.7775 
436 2 -33.1343 -52.681 -66.743 
437 2 -33.4621 -49.6699 -69.593 
438 2 -32.17 -53.7506 -71.0706 
439 2 -32.098 -51.0341 -68.1965 
440 2 -28.6677 -53.1489 -68.6501 
441 2 -29.4522 -51.1162 -71.0694 
442 2 -30.7865 -52.5097 -69.5669 
443 2 -30.7171 -49.737 -66.7961 
444 2 -28.3752 -52.8175 -66.2836 
445 2 -28.1003 -49.696 -69.7503 
446 2 -53.777 -48.3496 -71.0695 
447 2 -53.7711 -45.6407 -68.3429 
448 2 -51.0718 -48.3663 -68.3282 
449 2 -51.0498 -45.6471 -71.0634 
450 2 -52.414 -47.0019 -69.7017 
451 2 -52.4082 -44.292 -66.9758 
452 2 -49.7078 -47.0164 -66.964 
453 2 -49.6825 -44.2995 -69.6988 
454 2 -48.3514 -48.3687 -71.0486 
455 2 -48.3388 -45.6589 -68.3204 
456 2 -45.6467 -48.3969 -68.3086 
457 2 -45.6306 -45.65 -71.0418 
458 2 -46.9845 -47.0209 -69.6808 
459 2 -46.9734 -44.3092 -66.9521 
460 2 -44.2721 -47.0527 -66.9449 
461 2 -44.2647 -44.2938 -69.677 
462 2 -42.9756 -48.3868 -71.0644 
463 2 -42.9299 -45.6562 -68.2956 
464 2 -40.3911 -48.434 -68.3612 
465 2 -40.2072 -45.6696 -71.0193 
466 2 -41.64 -47.0104 -69.7116 
467 2 -41.5368 -44.3167 -66.9333 
468 2 -39.0335 -47.1377 -66.9612 
469 2 -38.8537 -44.3532 -69.6017 
470 2 -37.5242 -48.4011 -71.0166 
471 2 -37.3998 -45.6576 -68.2241 
472 2 -34.7743 -48.2867 -68.0495 
473 2 -34.6843 -45.7319 -70.9768 
474 2 -36.1002 -47.0704 -69.6687 
475 2 -36.0299 -44.1912 -66.8926 
476 2 -33.2803 -46.9161 -66.8008 
477 2 -33.3654 -44.2843 -69.6391 
478 2 -32.0717 -48.3618 -71.006 
479 2 -31.9893 -45.607 -68.2575 
480 2 -29.3996 -48.4105 -68.2671 
481 2 -29.3828 -45.6443 -71.0321 
482 2 -30.7104 -47.009 -69.6401 
483 2 -30.6404 -44.2229 -66.9087 
484 2 -28.0203 -47.0424 -66.953 
485 2 -28.0143 -44.2704 -69.6985 
486 2 -53.7613 -42.9358 -71.0834 
487 2 -53.7521 -40.2415 -68.3644 
488 2 -51.0443 -42.9436 -68.3422 
489 2 -51.032 -40.2361 -71.0846 
490 2 -52.3913 -41.5924 -69.7222 
491 2 -52.3765 -38.9064 -67.0011 
492 2 -49.6812 -41.5963 -66.9761 
493 2 -49.6573 -38.8948 -69.726 
494 2 -48.3217 -42.9382 -71.059 
495 2 -48.3138 -40.241 -68.337 
496 2 -45.6103 -42.939 -68.3051 
497 2 -45.5879 -40.2276 -71.0563 
498 2 -46.9511 -41.59 -69.6961 
499 2 -46.9436 -38.8923 -66.9764 
500 2 -44.2416 -41.587 -66.9381 
501 2 -44.214 -38.877 -69.6955 
502 2 -42.8885 -42.9352 -71.032 
503 2 -42.8756 -40.2261 -68.2935 
504 2 -40.1632 -42.9364 -68.2644 
505 2 -40.2767 -40.0621 -70.8802 
506 2 -41.5235 -41.6027 -69.6479 
507 2 -41.4905 -38.861 -66.9482 
508 2 -38.8061 -41.5541 -66.9027 
509 2 -38.7404 -38.814 -69.6411 
510 2 -37.2845 -43.1133 -70.8212 
511 2 -37.435 -40.1534 -68.2041 
512 2 -34.6221 -42.8863 -68.2116 
513 2 -34.8441 -40.1987 -71.0762 
514 2 -36.0486 -41.5498 -69.4425 
515 2 -36.0381 -38.7967 -66.8704 
516 2 -33.309 -41.4678 -66.8845 
517 2 -33.4133 -38.8231 -69.6996 
518 2 -32.0449 -42.9134 -71.0352 
519 2 -32.0199 -40.1427 -68.3214 
520 2 -29.3257 -42.8782 -68.3232 
521 2 -29.3506 -40.1908 -71.0865 
522 2 -30.6916 -41.5311 -69.6892 
523 2 -30.6741 -38.8069 -66.9177 
524 2 -27.9806 -41.4911 -66.9786 
525 2 -27.9898 -38.8315 -69.7326 
526 2 -53.7488 -37.5337 -71.1048 
527 2 -53.7349 -34.8514 -68.4048 
528 2 -51.0228 -37.5511 -68.3711 
529 2 -51.0197 -34.8252 -71.1064 
530 2 -52.3683 -36.1979 -69.7514 
531 2 -52.3444 -33.5175 -67.0648 
532 2 -49.6444 -36.2152 -67.0162 
533 2 -49.6458 -33.4797 -69.7529 
534 2 -48.3015 -37.5282 -71.0831 
535 2 -48.2988 -34.8371 -68.3759 
536 2 -45.5802 -37.529 -68.3369 
537 2 -45.5801 -34.8047 -71.079 
538 2 -46.9284 -36.1825 -69.7247 
539 2 -46.9268 -33.4758 -67.0365 
540 2 -44.2007 -36.1764 -66.9869 
541 2 -44.2046 -33.4557 -69.7235 
542 2 -42.8675 -37.4947 -71.0588 
543 2 -42.8471 -34.7986 -68.3392 
544 2 -40.1224 -37.4728 -68.2857 
545 2 -40.1424 -34.7589 -71.0448 
546 2 -41.4842 -36.1498 -69.6931 
547 2 -41.4659 -33.4464 -66.9883 
548 2 -38.7426 -36.1222 -66.9302 
549 2 -38.7592 -33.4131 -69.6825 
550 2 -37.4475 -37.398 -71.0146 
551 2 -37.3981 -34.7363 -68.2803 
552 2 -34.7085 -37.4504 -68.2777 
553 2 -34.7142 -34.7366 -71.0405 
554 2 -36.055 -36.0838 -69.6508 
555 2 -36.0201 -33.3942 -66.9112 
556 2 -33.3431 -36.1051 -66.8899 
557 2 -33.3559 -33.394 -69.66 
558 2 -32.0412 -37.4609 -71.0638 
559 2 -32.0026 -34.7512 -68.28 
560 2 -29.343 -37.4966 -68.3331 
561 2 -29.3128 -34.7634 -71.0848 
562 2 -30.6752 -36.1065 -69.6911 
563 2 -30.6408 -33.4191 -66.8812 
564 2 -27.9835 -36.2034 -66.9235 
565 2 -27.8531 -33.4962 -69.7176 
566 2 -53.7373 -32.1105 -71.114 
567 2 -53.7202 -29.4006 -68.4055 
568 2 -51.0102 -32.1254 -68.4085 
569 2 -51.0249 -29.3856 -71.1182 
570 2 -52.3657 -30.7579 -69.7621 
571 2 -52.4235 -28.029 -66.9912 
572 2 -49.6533 -30.7676 -67.0537 
573 2 -49.6825 -28.028 -69.7443 
574 2 -48.3012 -32.1019 -71.1058 
575 2 -48.3097 -29.3969 -68.4078 
576 2 -45.5753 -32.1008 -68.384 
577 2 -45.5847 -29.3767 -71.1005 
578 2 -46.9367 -30.7488 -69.7505 
579 2 -46.9435 -28.054 -67.0523 
580 2 -44.2007 -30.7531 -67.0324 
581 2 -44.2174 -28.0277 -69.7403 
582 2 -42.8563 -32.0744 -71.0727 
583 2 -42.8496 -29.3708 -68.3704 
584 2 -40.1148 -32.0579 -68.3277 
585 2 -40.13 -29.349 -71.0612 
586 2 -41.4812 -30.7257 -69.7129 
587 2 -41.4853 -28.0215 -67.0042 
588 2 -38.7416 -30.7067 -66.9619 
589 2 -38.7647 -27.9977 -69.6879 
590 2 -37.4092 -32.0386 -71.0397 
591 2 -37.3832 -29.318 -68.2968 
592 2 -34.6726 -32.0167 -68.2696 
593 2 -34.709 -29.3089 -71.0449 
594 2 -36.0387 -30.684 -69.6657 
595 2 -36.0261 -27.9508 -66.9128 
596 2 -33.3173 -30.6559 -66.8777 
597 2 -33.3677 -27.9182 -69.6809 
598 2 -32.0478 -32.0815 -71.1078 
599 2 -32.0473 -29.261 -68.2755 
600 2 -29.2264 -32.2224 -68.3111 
601 2 -29.299 -29.3135 -71.2689 
602 2 -30.5903 -30.8011 -69.803 
603 2 -30.5922 -27.6776 -66.7681 
604 2 -28.0215 -30.5461 -66.9308 
605 2 -28.0512 -27.8897 -69.688 
606 2 -53.7471 -26.6767 -71.1311 
607 2 -53.7637 -23.983 -68.3908 
608 2 -51.0612 -26.6837 -68.3774 
609 2 -51.0549 -23.9874 -71.1479 
610 2 -52.4014 -25.3282 -69.7587 
611 2 -52.4076 -22.6262 -67.0409 
612 2 -49.7029 -25.3235 -67.022 
613 2 -49.6793 -22.6505 -69.8071 
614 2 -48.3224 -26.6754 -71.1131 
615 2 -48.3345 -23.9785 -68.4026 
616 2 -45.5913 -26.6765 -68.3967 
617 2 -45.599 -23.9635 -71.1188 
618 2 -46.9569 -25.3237 -69.756 
619 2 -46.959 -22.6143 -67.0614 
620 2 -44.2285 -25.321 -67.0413 
621 2 -44.2352 -22.6051 -69.7628 
622 2 -42.8649 -26.6577 -71.0915 
623 2 -42.8801 -23.9473 -68.3863 
624 2 -40.1367 -26.6398 -68.345 
625 2 -40.1613 -23.938 -71.086 
626 2 -41.5055 -25.3047 -69.7245 
627 2 -41.5598 -22.5734 -67.0072 
628 2 -38.7991 -25.2761 -66.9621 
629 2 -38.8224 -22.5758 -69.7091 
630 2 -37.4283 -26.6232 -71.0527 
631 2 -37.4547 -23.9045 -68.3196 
632 2 -34.6906 -26.5599 -68.2701 
633 2 -34.7635 -23.9026 -71.0759 
634 2 -36.0821 -25.2586 -69.6734 
635 2 -36.1328 -22.5311 -66.9297 
636 2 -33.3644 -25.1661 -66.8684 
637 2 -33.4405 -22.5205 -69.7114 
638 2 -32.0205 -26.5691 -71.0679 
639 2 -32.0731 -23.8192 -68.3128 
640 2 -29.2947 -26.2647 -68.2961 
641 2 -29.3338 -23.8242 -71.1041 
642 2 -30.722 -25.1192 -69.7278 
643 2 -30.7361 -22.4347 -66.9641 
644 2 -27.9005 -25.0223 -66.9182 
645 2 -27.9791 -22.4737 -69.7277 
646 2 -53.7701 -21.2535 -71.1549 
647 2 -53.7624 -18.543 -68.4428 
648 2 -51.0825 -21.328 -68.482 
649 2 -51.061 -18.5646 -71.1887 
650 2 -52.4107 -19.9077 -69.8055 
651 2 -49.6777 -20.0228 -67.1828 
652 2 -48.3309 -21.2895 -71.1749 
653 2 -48.3478 -18.6445 -68.5304 
654 2 -45.6009 -21.2462 -68.4154 
655 2 -45.5833 -18.5825 -71.1986 
656 2 -46.939 -19.9507 -69.851 
657 2 -44.2639 -19.8626 -67.0455 
658 2 -42.8786 -21.2463 -71.1234 
659 2 -42.8837 -18.5155 -68.4055 
660 2 -40.1944 -21.2171 -68.3612 
661 2 -40.1954 -18.5079 -71.1242 
662 2 -41.5325 -19.8808 -69.758 
663 2 -38.8722 -19.8347 -66.9885 
664 2 -37.4938 -21.2198 -71.0993 
665 2 -37.5272 -18.4994 -68.3793 
666 2 -34.8171 -21.1913 -68.3463 
667 2 -34.82 -18.512 -71.1205 
668 2 -36.1633 -19.8533 -69.7323 
669 2 -33.4931 -19.8315 -66.9723 
670 2 -32.0851 -21.1884 -71.101 
671 2 -32.136 -18.5227 -68.3772 
672 2 -29.348 -21.1346 -68.3477 
673 2 -29.3763 -18.5145 -71.1219 
674 2 -30.7357 -19.8372 -69.734 
675 2 -27.9985 -19.7975 -66.9442 
676 2 -53.8333 -53.796 -65.6222 
677 2 -53.866 -51.0826 -62.9107 
678 2 -51.1509 -53.8488 -62.8944 
679 2 -51.1037 -51.0914 -65.5944 
680 2 -52.4821 -52.4487 -64.2477 
681 2 -52.5178 -49.705 -61.5673 
682 2 -49.7701 -52.5056 -61.5525 
683 2 -49.7438 -49.7385 -64.2266 
684 2 -48.404 -53.8471 -65.5665 
685 2 -48.4028 -51.1381 -62.8832 
686 2 -45.7092 -53.8458 -62.7848 
687 2 -45.6767 -51.1485 -65.5785 
688 2 -47.0316 -52.5034 -64.2081 
689 2 -47.012 -49.8323 -61.5155 
690 2 -44.3624 -52.5136 -61.3708 
691 2 -44.2967 -49.825 -64.2163 
692 2 -43.0045 -53.8688 -65.5027 
693 2 -43.0137 -51.1517 -62.7426 
694 2 -40.281 -53.8577 -62.6337 
695 2 -40.4196 -51.2111 -65.3987 
696 2 -41.6957 -52.5784 -64.0316 
697 2 -41.591 -49.8031 -61.4294 
698 2 -38.8658 -52.5244 -61.2708 
699 2 -38.8981 -49.9556 -64.0732 
700 2 -37.5623 -53.8387 -65.348 
701 2 -37.4744 -51.1705 -62.6362 
702 2 -34.8213 -53.8384 -62.4278 
703 2 -34.4456 -51.3641 -65.202 
704 2 -36.09 -52.5519 -63.9578 
705 2 -36.0875 -49.7384 -61.2798 
706 2 -33.4365 -52.4751 -61.0633 
707 2 -33.292 -49.7485 -63.9869 
708 2 -32.0669 -53.7769 -64.9189 
709 2 -32.1053 -50.9848 -62.3543 
710 2 -29.4133 -53.8692 -62.4013 
711 2 -29.5592 -51.0749 -65.2065 
712 2 -30.7559 -52.3651 -63.6375 
713 2 -30.4994 -49.7319 -61.1951 
714 2 -27.9615 -52.5092 -61.1714 
715 2 -28.0712 -49.7566 -63.9755 
716 2 -53.7941 -48.3438 -65.6009 
717 2 -53.7394 -45.6224 -62.8248 
718 2 -51.0934 -48.3529 -62.8662 
719 2 -51.06 -45.6499 -65.6038 
720 2 -52.43 -46.9873 -64.2332 
721 2 -52.3526 -44.3275 -61.3781 
722 2 -49.6973 -47.0139 -61.5057 
723 2 -49.7022 -44.3003 -64.2303 
724 2 -48.3744 -48.3978 -65.6004 
725 2 -48.3491 -45.6771 -62.8884 
726 2 -45.6757 -48.4792 -62.9044 
727 2 -45.6252 -45.6885 -65.5937 
728 2 -46.999 -47.0588 -64.2455 
729 2 -46.7853 -44.4389 -61.6335 
730 2 -44.2182 -47.2067 -61.6025 
731 2 -44.2052 -44.3493 -64.2724 
732 2 -42.9472 -48.4286 -65.555 
733 2 -42.8863 -45.7288 -62.8806 
734 2 -40.1843 -48.4388 -62.798 
735 2 -40.2088 -45.6899 -65.5459 
736 2 -41.5327 -47.1021 -64.2084 
737 2 -41.4678 -44.3698 -61.5713 
738 2 -38.8096 -47.0257 -61.4635 
739 2 -38.8077 -44.2899 -64.2363 
740 2 -37.8793 -49.3532 -66.1213 
741 2 -37.4565 -45.5924 -62.8196 
742 2 -34.9765 -48.4467 -63.0608 
743 2 -34.5447 -45.3888 -65.5162 
744 2 -36.5813 -47.3395 -66.5237 
745 2 -36.1554 -44.121 -61.4677 
746 2 -34.0319 -46.5555 -61.878 
747 2 -33.2889 -44.0157 -64.1684 
748 2 -32.0164 -48.347 -65.4103 
749 2 -32.042 -45.4624 -62.8641 
750 2 -29.3515 -48.2876 -62.6512 
751 2 -29.328 -45.6403 -65.5481 
752 2 -30.673 -46.9463 -64.0882 
753 2 -30.5602 -44.2015 -61.3872 
754 2 -27.9638 -46.9379 -61.3337 
755 2 -27.9945 -44.2199 -64.2211 
756 2 -53.7632 -42.9349 -65.6103 
757 2 -53.7565 -40.2065 -62.8715 
758 2 -51.0921 -42.9792 -62.8649 
759 2 -51.0397 -40.2537 -65.6027 
760 2 -52.4132 -41.5896 -64.2291 
761 2 -52.433 -38.8096 -61.5042 
762 2 -49.8636 -41.6623 -61.3523 
763 2 -49.6703 -38.9297 -64.2153 
764 2 -48.3395 -42.9497 -65.5966 
765 2 -48.3805 -40.3244 -62.7719 
766 2 -45.5536 -42.9428 -62.9896 
767 2 -45.606 -40.2307 -65.5766 
768 2 -46.9958 -41.5871 -64.2278 
769 2 -47.0181 -38.786 -61.598 
770 2 -44.279 -41.6196 -61.435 
771 2 -44.2147 -38.8814 -64.2255 
772 2 -42.8639 -42.9344 -65.5802 
773 2 -42.8686 -40.2263 -62.8133 
774 2 -40.1238 -42.9226 -62.8526 
775 2 -40.1462 -40.189 -65.5391 
776 2 -41.5117 -41.573 -64.1989 
777 2 -41.4611 -38.8555 -61.4773 
778 2 -38.7679 -41.537 -61.4812 
779 2 -38.7601 -38.8253 -64.1886 
780 2 -37.4219 -42.8769 -65.5322 
781 2 -37.4012 -40.1559 -62.8017 
782 2 -34.6923 -42.7806 -62.7598 
783 2 -34.6549 -40.1225 -65.4884 
784 2 -36.0536 -41.4923 -64.1763 
785 2 -36.0374 -38.8415 -61.3889 
786 2 -33.2737 -41.5022 -61.3576 
787 2 -33.2923 -38.7837 -64.0644 
788 2 -31.9035 -42.7677 -65.5429 
789 2 -31.8729 -40.1117 -62.6751 
790 2 -29.2522 -42.8404 -62.7877 
791 2 -29.2676 -40.1205 -65.557 
792 2 -30.5783 -41.446 -64.1304 
793 2 -30.3749 -38.8152 -61.2572 
794 2 -27.8515 -41.5291 -61.4379 
795 2 -27.881 -38.7921 -64.1871 
796 2 -53.7426 -37.5529 -65.6568 
797 2 -53.7188 -34.8832 -62.9399 
798 2 -51.0325 -37.5324 -62.8961 
799 2 -51.0088 -34.8627 -65.6775 
800 2 -52.3631 -36.2136 -64.3091 
801 2 -52.3517 -33.5309 -61.5982 
802 2 -49.6912 -36.1458 -61.555 
803 2 -49.6376 -33.508 -64.3407 
804 2 -48.3181 -37.5655 -65.6096 
805 2 -48.3056 -34.8345 -62.9404 
806 2 -45.5832 -37.481 -62.9261 
807 2 -45.5742 -34.8167 -65.6565 
808 2 -46.9447 -36.17 -64.3056 
809 2 -46.9207 -33.4799 -61.6143 
810 2 -44.1962 -36.115 -61.5867 
811 2 -44.1898 -33.4659 -64.3163 
812 2 -42.8507 -37.5139 -65.5875 
813 2 -42.8241 -34.7806 -62.9282 
814 2 -40.1097 -37.4737 -62.8262 
815 2 -40.1106 -34.7759 -65.5889 
816 2 -41.4621 -36.1575 -64.2434 
817 2 -41.4465 -33.4785 -61.537 
818 2 -38.7614 -36.1347 -61.4099 
819 2 -38.7329 -33.4329 -64.2257 
820 2 -37.39 -37.438 -65.5135 
821 2 -37.4079 -34.7351 -62.7654 
822 2 -34.6781 -37.4149 -62.7081 
823 2 -34.6672 -34.726 -65.5028 
824 2 -36.029 -36.0855 -64.1249 
825 2 -36.1124 -33.2811 -61.4166 
826 2 -33.3574 -35.9974 -61.319 
827 2 -33.3033 -33.3521 -64.1296 
828 2 -31.9791 -37.4421 -65.4997 
829 2 -31.9404 -34.707 -62.7414 
830 2 -29.1795 -37.3994 -62.798 
831 2 -29.244 -34.7561 -65.542 
832 2 -30.6092 -36.0833 -64.1345 
833 2 -30.4657 -33.3455 -61.4802 
834 2 -27.7819 -35.9528 -61.5277 
835 2 -27.8564 -33.329 -64.2538 
836 2 -53.6982 -32.1805 -65.7104 
837 2 -53.6281 -29.5414 -62.9591 
838 2 -50.9982 -32.1882 -62.9785 
839 2 -51.0241 -29.422 -65.7034 
840 2 -52.3178 -30.8428 -64.3657 
841 2 -52.4088 -28.0775 -61.5896 
842 2 -49.6317 -30.82 -61.6615 
843 2 -49.6821 -28.0698 -64.3379 
844 2 -48.2962 -32.1284 -65.6922 
845 2 -48.2968 -29.4425 -63.0122 
846 2 -45.5556 -32.1269 -62.9672 
847 2 -45.5763 -29.4076 -65.6944 
848 2 -46.9173 -30.7857 -64.3452 
849 2 -46.8877 -28.1338 -61.6714 
850 2 -44.1391 -30.8261 -61.6107 
851 2 -44.198 -28.0731 -64.3408 
852 2 -42.8371 -32.0904 -65.6564 
853 2 -42.8414 -29.4111 -62.9606 
854 2 -40.1168 -32.0974 -62.8973 
855 2 -40.1177 -29.3557 -65.623 
856 2 -41.4616 -30.7543 -64.2922 
857 2 -41.5171 -28.0438 -61.5869 
858 2 -38.7745 -30.7346 -61.5455 
859 2 -38.7727 -27.9943 -64.2452 
860 2 -37.3807 -32.0351 -65.5646 
861 2 -37.4066 -29.3388 -62.863 
862 2 -34.6845 -31.9768 -62.7875 
863 2 -34.6289 -29.2526 -65.5071 
864 2 -36.0168 -30.6595 -64.2117 
865 2 -36.0208 -28.0076 -61.494 
866 2 -33.343 -30.5822 -61.4294 
867 2 -33.2599 -27.8659 -64.1143 
868 2 -31.9269 -31.9753 -65.4898 
869 2 -31.8656 -29.1427 -62.6681 
870 2 -29.161 -31.9681 -62.8338 
871 2 -29.2488 -29.1054 -65.3103 
872 2 -30.5948 -30.5743 -64.0759 
873 2 -30.396 -27.8154 -61.1839 
874 2 -27.8073 -30.6331 -61.4376 
875 2 -53.7623 -40.6137 -48.0891 
876 2 -53.8223 -26.7208 -65.5575 
877 2 -53.7628 -23.8541 -62.8319 
878 2 -51.0754 -26.7328 -62.9796 
879 2 -51.0829 -23.9814 -65.6419 
880 2 -52.4695 -25.3028 -64.2274 
881 2 -52.3311 -22.4243 -61.5794 
882 2 -49.6319 -25.4294 -61.7009 
883 2 -49.6784 -22.6104 -64.327 
884 2 -48.3304 -26.7178 -65.7107 
885 2 -48.3255 -24.0752 -63.0895 
886 2 -45.5672 -26.7287 -63.0059 
887 2 -45.6085 -23.9725 -65.7065 
888 2 -46.9252 -25.3946 -64.3894 
889 2 -47.0132 -22.833 -61.62 