ITEM: TIMESTEP
0
ITEM: TIME
0.00
ITEM: NUMBER OF ATOMS
55413
ITEM: BOX BOUNDS pp pp ff
-54.31 54.31
-54.31 54.31
-100 10.5097
ITEM: ATOMS element xu yu zu 
Si -53.731 -51.0387 -79.2804 
Si -51.0138 -53.7563 -79.2763 
Si -52.3746 -49.6916 -77.9105 
Si -49.657 -52.407 -77.9057 
Si -48.3059 -51.044 -79.2631 
Si -45.6004 -53.7604 -79.2584 
Si -46.9479 -49.6944 -77.8937 
Si -44.2456 -52.4078 -77.8886 
Si -42.8933 -51.0485 -79.2515 
Si -40.188 -53.7594 -79.2482 
Si -41.5395 -49.6946 -77.8825 
Si -38.8327 -52.404 -77.8803 
Si -37.4822 -51.044 -79.2489 
Si -34.7818 -53.7462 -79.2356 
Si -36.1321 -49.6745 -77.8942 
Si -33.4441 -52.3178 -77.9248 
Si -32.0554 -50.9876 -79.2682 
Si -29.3175 -53.6714 -79.286 
Si -30.7087 -49.6352 -77.886 
Si -27.9846 -52.3138 -77.8905 
Si -53.7464 -45.6172 -79.2659 
Si -51.021 -48.3304 -79.2668 
Si -52.391 -44.2678 -77.8961 
Si -49.6607 -46.9839 -77.8974 
Si -48.3128 -45.6235 -79.2613 
Si -45.598 -48.3345 -79.2567 
Si -46.9537 -44.276 -77.894 
Si -44.24 -46.9843 -77.8887 
Si -42.8921 -45.6261 -79.2585 
Si -40.1887 -48.3406 -79.2537 
Si -41.535 -44.272 -77.8961 
Si -38.8353 -46.9865 -77.8895 
Si -37.4666 -45.6308 -79.2437 
Si -34.7649 -48.318 -79.25 
Si -36.0978 -44.2905 -77.8677 
Si -33.4037 -46.9622 -77.8869 
Si -32.0283 -45.6121 -79.2399 
Si -29.3392 -48.295 -79.2427 
Si -30.7091 -44.2167 -77.8679 
Si -28.0145 -46.9353 -77.8494 
Si -53.7675 -40.2061 -79.2638 
Si -51.0391 -42.9129 -79.263 
Si -52.411 -38.8536 -77.901 
Si -49.6819 -41.5616 -77.8988 
Si -48.33 -40.2065 -79.2652 
Si -45.6093 -42.9178 -79.2638 
Si -46.9759 -38.8576 -77.896 
Si -44.2575 -41.5672 -77.8976 
Si -42.8911 -40.2181 -79.2589 
Si -40.1552 -42.9114 -79.2434 
Si -41.5321 -38.8873 -77.8808 
Si -38.7946 -41.5978 -77.8316 
Si -37.1055 -40.3268 -78.9087 
Si -34.7037 -43.0014 -79.256 
Si -36.182 -38.7033 -80.4979 
Si -33.3835 -41.5058 -78.0242 
Si -31.8923 -40.2264 -79.3146 
Si -29.3096 -42.8964 -79.2329 
Si -30.5972 -38.8394 -77.9406 
Si -27.9839 -41.5041 -77.8619 
Si -53.7842 -34.7997 -79.2763 
Si -51.06 -37.5024 -79.2715 
Si -52.4244 -33.4515 -77.9152 
Si -49.7063 -36.1523 -77.9066 
Si -48.3641 -34.7968 -79.283 
Si -45.6198 -37.4999 -79.2598 
Si -47.0276 -33.4295 -77.9274 
Si -44.2743 -36.1495 -77.8779 
Si -42.903 -34.8003 -79.2395 
Si -40.1205 -37.5364 -79.1834 
Si -41.5322 -33.4235 -77.918 
Si -38.6421 -36.3424 -77.777 
Si -37.4094 -34.8187 -79.1488 
Si -34.5113 -37.6671 -79.0377 
Si -36.0377 -33.3765 -77.8722 
Si -33.3106 -36.0221 -77.8806 
Si -31.9861 -34.7031 -79.2847 
Si -29.28 -37.4348 -79.2779 
Si -30.64 -33.3439 -77.9163 
Si -27.946 -36.0813 -77.8885 
Si -53.8091 -29.3981 -79.2928 
Si -51.0792 -32.0912 -79.2851 
Si -52.4512 -28.0499 -77.9393 
Si -49.7272 -30.7331 -77.9276 
Si -48.3763 -29.3688 -79.2901 
Si -45.6615 -32.0728 -79.2823 
Si -47.0352 -27.9951 -77.9364 
Si -44.367 -30.6399 -77.953 
Si -42.9345 -29.334 -79.2756 
Si -40.1545 -32.0385 -79.2298 
Si -41.5953 -27.9701 -77.9071 
Si -38.8129 -30.6384 -77.8832 
Si -37.4684 -29.3028 -79.2797 
Si -34.7198 -32.0164 -79.2742 
Si -36.0992 -27.9971 -77.8835 
Si -33.3699 -30.626 -77.9353 
Si -31.9893 -29.3063 -79.3058 
Si -29.2794 -32.0075 -79.2874 
Si -30.6281 -27.949 -77.9484 
Si -27.9271 -30.6381 -77.9361 
Si -53.8364 -23.957 -79.2731 
Si -51.108 -26.6779 -79.2989 
Si -52.5082 -22.595 -77.8951 
Si -49.7545 -25.3238 -77.948 
Si -48.3917 -23.9433 -79.2811 
Si -45.655 -26.6382 -79.2787 
Si -47.0351 -22.5866 -77.9218 
Si -44.2948 -25.2863 -77.9113 
Si -42.9355 -23.9029 -79.2552 
Si -40.2673 -26.627 -79.2905 
Si -41.6026 -22.5186 -77.8795 
Si -39.0886 -25.2283 -77.8475 
Si -37.4768 -23.9828 -79.2571 
Si -34.585 -26.5456 -79.4221 
Si -36.115 -22.4604 -77.9142 
Si -33.1324 -25.2248 -77.934 
Si -31.9309 -23.8362 -79.3468 
Si -29.2888 -26.5855 -79.314 
Si -30.6358 -22.5055 -77.9241 
Si -27.948 -25.2275 -77.9399 
Si -53.8584 -18.5399 -79.2409 
Si -51.1328 -21.2349 -79.2512 
Si -49.7791 -19.8687 -77.8952 
Si -48.3989 -18.5129 -79.2485 
Si -45.6671 -21.2208 -79.2661 
Si -44.3113 -19.8638 -77.9078 
Si -42.9398 -18.4937 -79.254 
Si -40.1875 -21.1785 -79.232 
Si -38.8031 -19.7679 -77.8551 
Si -37.4855 -18.51 -79.4984 
Si -34.7408 -21.1819 -79.3239 
Si -33.3691 -19.8526 -77.9599 
Si -32.0086 -18.479 -79.3167 
Si -29.2865 -21.1629 -79.3022 
Si -27.9278 -19.8168 -77.9422 
Si -53.7215 -53.7531 -76.5706 
Si -53.7314 -51.0527 -73.843 
Si -51.0105 -53.7602 -73.8333 
Si -51.0114 -51.0451 -76.5493 
Si -52.3685 -52.4066 -75.1974 
Si -52.371 -49.7124 -72.4784 
Si -49.6553 -52.413 -72.4601 
Si -49.6514 -49.6997 -75.1783 
Si -48.2991 -53.7604 -76.5388 
Si -48.2923 -51.0485 -73.8077 
Si -45.5898 -53.77 -73.7923 
Si -45.5936 -51.0469 -76.5233 
Si -46.9416 -52.4134 -75.1647 
Si -46.9283 -49.7015 -72.436 
Si -44.2322 -52.4285 -72.4101 
Si -44.237 -49.6997 -75.1486 
Si -42.8943 -53.7648 -76.5202 
Si -42.894 -51.0701 -73.7855 
Si -40.1985 -53.7361 -73.7437 
Si -40.1875 -51.0501 -76.5128 
Si -41.5403 -52.4125 -75.1516 
Si -41.5232 -49.7263 -72.4462 
Si -38.874 -52.3561 -72.3437 
Si -38.8381 -49.6889 -75.1465 
Si -37.4887 -53.751 -76.491 
Si -37.5095 -51.0155 -73.7307 
Si -34.8099 -53.6875 -73.7413 
Si -34.7932 -51.0112 -76.504 
Si -36.1642 -52.3559 -75.125 
Si -36.1473 -49.6568 -72.3672 
Si -33.4456 -52.3089 -72.4034 
Si -33.4371 -49.6454 -75.1446 
Si -32.0252 -53.602 -76.5992 
Si -32.0791 -50.9753 -73.7735 
Si -29.3094 -53.5919 -73.8194 
Si -29.3296 -50.9525 -76.5179 
Si -30.7048 -52.2811 -75.1713 
Si -30.7572 -49.6218 -72.3765 
Si -27.9846 -52.275 -72.4049 
Si -28.0086 -49.6139 -75.1014 
Si -53.7377 -48.3364 -76.5561 
Si -53.745 -45.6469 -73.8404 
Si -51.0153 -48.3446 -73.8265 
Si -51.0233 -45.6267 -76.5433 
Si -52.3765 -46.994 -75.1919 
Si -52.3458 -44.3121 -72.5148 
Si -49.651 -46.9976 -72.4625 
Si -49.6575 -44.2789 -75.1824 
Si -48.2965 -48.3345 -76.53 
Si -48.2986 -45.6302 -73.8128 
Si -45.5592 -48.3241 -73.7708 
Si -45.5936 -45.629 -76.525 
Si -46.932 -46.9919 -75.1553 
Si -46.9402 -44.2796 -72.4476 
Si -44.1776 -46.9749 -72.3903 
Si -44.2423 -44.2779 -75.1537 
Si -42.8902 -48.3375 -76.5131 
Si -42.8469 -45.5816 -73.7698 
Si -40.1806 -48.3403 -73.7731 
Si -40.2065 -45.6475 -76.5281 
Si -41.5396 -46.9852 -75.1379 
Si -41.468 -44.1267 -72.4899 
Si -38.8208 -47.0115 -72.3849 
Si -38.8557 -44.3397 -75.1408 
Si -37.4873 -48.3402 -76.5202 
Si -37.4969 -45.6863 -73.7824 
Si -34.7806 -48.3131 -73.7456 
Si -34.7565 -45.6328 -76.5016 
Si -36.1248 -46.9998 -75.158 
Si -35.9885 -44.4715 -72.5002 
Si -33.4176 -46.9463 -72.3851 
Si -33.4286 -44.2164 -75.1737 
Si -32.0613 -48.2978 -76.4999 
Si -32.0837 -45.5653 -73.7621 
Si -29.3802 -48.2694 -73.7317 
Si -29.3648 -45.5658 -76.48 
Si -30.7254 -46.9271 -75.123 
Si -30.7339 -44.2264 -72.3599 
Si -28.0516 -46.9008 -72.3449 
Si -28.0364 -44.1948 -75.0929 
Si -53.7554 -42.9124 -76.5361 
Si -53.7621 -40.1816 -73.8272 
Si -51.0102 -42.9118 -73.8346 
Si -51.048 -40.2079 -76.5423 
Si -52.3987 -41.5565 -75.1722 
Si -52.4146 -38.8441 -72.4324 
Si -49.6742 -41.5607 -72.4421 
Si -49.7012 -38.8592 -75.1676 
Si -48.3151 -42.9162 -76.5425 
Si -48.3286 -40.2039 -73.8088 
Si -45.6034 -42.916 -73.8051 
Si -45.6204 -40.2181 -76.5326 
Si -46.9707 -41.5669 -75.1652 
Si -46.9854 -38.8481 -72.4326 
Si -44.2807 -41.5654 -72.4109 
Si -44.274 -38.8868 -75.1395 
Si -42.9085 -42.9315 -76.5376 
Si -42.9131 -40.2374 -73.7567 
Si -40.0593 -42.7728 -73.8567 
Si -40.2007 -40.2617 -76.5238 
Si -41.5874 -41.5693 -75.1712 
Si -41.5608 -39.0008 -72.2544 
Si -36.31 -39.4005 -72.8752 
Si -38.927 -39.173 -74.8725 
Si -37.5057 -43.0067 -76.4939 
Si -38.3878 -40.9894 -73.133 
Si -34.8084 -42.9354 -73.764 
Si -36.0002 -39.5512 -75.4056 
Si -36.5908 -41.7519 -74.7441 
Si -34.8658 -39.6566 -77.5615 
Si -33.3733 -41.6474 -72.4402 
Si -33.5095 -38.9072 -75.3346 
Si -32.0869 -42.8236 -76.5295 
Si -32.0924 -40.2394 -73.7866 
Si -29.3808 -42.8389 -73.7138 
Si -29.306 -40.1389 -76.4729 
Si -30.6897 -41.512 -75.1516 
Si -30.8555 -38.6387 -72.3033 
Si -28.0876 -41.4217 -72.3235 
Si -27.9828 -38.7522 -75.0845 
Si -53.7737 -37.4978 -76.5441 
Si -53.7833 -34.8062 -73.8053 
Si -51.0592 -37.501 -73.8064 
Si -51.0681 -34.8013 -76.5456 
Si -52.4197 -36.1513 -75.1722 
Si -52.4283 -33.4641 -72.4304 
Si -49.7118 -36.152 -72.4304 
Si -49.7167 -33.4483 -75.1787 
Si -48.3549 -37.514 -76.5432 
Si -48.3672 -34.8008 -73.804 
Si -45.6309 -37.503 -73.8042 
Si -45.7157 -34.818 -76.5683 
Si -47.0177 -36.1687 -75.1641 
Si -47.0449 -33.4442 -72.411 
Si -44.2661 -36.1467 -72.4455 
Si -44.549 -33.3988 -75.1486 
Si -42.9403 -37.5679 -76.5491 
Si -42.9223 -34.7747 -73.8735 
Si -40.3342 -37.762 -73.7432 
Si -40.0047 -34.9468 -76.4432 
Si -41.5299 -36.3933 -75.1229 
Si -41.5877 -33.3804 -72.3661 
Si -41.5717 -33.4183 -75.3612 
Si -38.5956 -33.3256 -75.2188 
Si -37.4551 -37.6945 -76.1191 
Si -37.2883 -34.6031 -73.9072 
Si -34.8261 -37.445 -73.6455 
Si -34.6701 -34.7187 -76.4848 
Si -36.0277 -36.0883 -75.105 
Si -36.1012 -33.2991 -72.4571 
Si -32.8574 -35.4679 -72.2338 
Si -33.3251 -33.2542 -75.1857 
Si -31.9861 -37.488 -76.6563 
Si -31.7106 -34.3355 -73.8903 
Si -29.2938 -37.3636 -73.6976 
Si -29.3066 -34.7145 -76.538 
Si -30.7056 -36.0979 -75.1585 
Si -30.2755 -33.188 -72.4372 
Si -27.9079 -35.9344 -72.427 
Si -27.9053 -33.327 -75.2339 
Si -53.7952 -32.114 -76.5543 
Si -53.8067 -29.443 -73.8245 
Si -51.0855 -32.1125 -73.8115 
Si -51.1024 -29.402 -76.5669 
Si -52.4364 -30.7692 -75.1919 
Si -52.4487 -28.103 -72.4592 
Si -49.7444 -30.7611 -72.4357 
Si -49.7588 -28.0425 -75.2059 
Si -48.3792 -32.0811 -76.552 
Si -48.4253 -29.3794 -73.8094 
Si -45.7618 -32.0171 -73.7481 
Si -45.7049 -29.3285 -76.5422 
Si -47.0611 -30.6953 -75.1833 
Si -47.0723 -28.0388 -72.4376 
Si -44.3408 -30.6873 -72.4241 
Si -44.3465 -27.9794 -75.1724 
Si -43.0909 -31.9043 -76.4701 
Si -43.0028 -29.2524 -73.7288 
Si -40.2087 -32.0221 -73.876 
Si -40.1812 -29.2544 -76.5415 
Si -41.6131 -30.4403 -75.1461 
Si -41.5938 -27.9668 -72.3623 
Si -38.8455 -30.6726 -72.3991 
Si -38.8808 -27.9849 -75.0557 
Si -37.3483 -31.9256 -76.5628 
Si -37.4548 -29.2862 -73.7214 
Si -34.6563 -31.9664 -73.7352 
Si -34.6944 -29.2898 -76.5156 
Si -36.0399 -30.6048 -75.1034 
Si -36.0259 -27.9357 -72.3977 
Si -33.2416 -30.7794 -72.2423 
Si -33.322 -27.9654 -75.1449 
Si -31.9861 -31.9443 -76.587 
Si -32.0017 -29.35 -73.7301 
Si -29.1636 -31.8344 -73.9303 
Si -29.2712 -29.269 -76.5762 
Si -30.6478 -30.5879 -75.2128 
Si -30.6622 -27.9264 -72.422 
Si -27.9159 -30.5379 -72.4437 
Si -27.9362 -27.915 -75.1946 
Si -53.8372 -26.7288 -76.5868 
Si -53.9153 -24.1022 -73.8979 
Si -51.1375 -26.7235 -73.8444 
Si -51.1501 -24.0114 -76.6 
Si -52.4865 -25.3854 -75.2359 
Si -52.5293 -22.8064 -72.6021 
Si -49.7835 -25.38 -72.4772 
Si -49.7595 -22.6877 -75.2754 
Si -48.4147 -26.6785 -76.5745 
Si -48.4465 -24.0319 -73.8635 
Si -45.732 -26.6771 -73.811 
Si -45.6946 -23.9652 -76.5657 
Si -47.0533 -25.3387 -75.2162 
Si -47.055 -22.7347 -72.5087 
Si -44.3724 -25.3567 -72.4341 
Si -44.3531 -22.6138 -75.1961 
Si -42.955 -26.6389 -76.5206 
Si -43.0371 -23.9819 -73.8009 
Si -40.2083 -26.6162 -73.7002 
Si -40.3312 -23.8649 -76.4392 
Si -41.6142 -25.3097 -75.1044 
Si -41.7045 -22.633 -72.4277 
Si -38.7987 -25.2436 -72.3657 
Si -38.9532 -22.5356 -75.0704 
Si -37.6224 -26.5179 -76.3436 
Si -37.5317 -23.7567 -73.6642 
Si -34.6689 -26.6108 -73.7846 
Si -34.7474 -23.9563 -76.5486 
Si -36.1099 -25.4548 -77.8871 
Si -36.236 -22.4148 -72.1948 
Si -33.3684 -25.2227 -72.4193 
Si -33.4252 -22.5381 -75.15 
Si -31.9362 -26.6317 -76.5172 
Si -32.0362 -23.8843 -73.8104 
Si -29.3042 -26.5951 -73.8065 
Si -29.3027 -23.8849 -76.5625 
Si -30.6426 -25.2255 -75.163 
Si -30.6742 -22.5388 -72.4632 
Si -27.966 -25.2529 -72.4251 
Si -27.9408 -22.5413 -75.2046 
Si -53.897 -21.2729 -76.5045 
Si -27.2873 -22.6624 -59.9987 
Si -51.1847 -21.4028 -73.9604 
Si -51.1523 -18.54 -76.5088 
Si -52.5339 -19.9047 -75.1599 
Si -49.5875 -20.2002 -72.7057 
Si -48.419 -21.2491 -76.5668 
Si -48.4224 -18.4857 -73.7901 
Si -45.8011 -21.3182 -73.885 
Si -45.7067 -18.5345 -76.5731 
Si -47.0877 -19.8613 -75.2045 
Si -44.5773 -19.968 -72.46 
Si -42.9844 -21.2074 -76.5026 
Si -43.2019 -18.5954 -73.7663 
Si -40.321 -21.1913 -73.6864 
Si -40.3316 -18.5053 -76.4373 
Si -41.684 -19.8543 -75.0635 
Si -39.062 -19.7819 -72.2551 
Si -37.5433 -21.3043 -76.4716 
Si -37.5643 -18.52 -73.534 
Si -34.7835 -21.228 -73.6949 
Si -34.712 -18.5138 -76.5781 
Si -36.2157 -19.9127 -75.0084 
Si -33.3592 -19.7562 -72.5539 
Si -32.0456 -21.2019 -76.5533 
Si -31.9958 -18.4421 -73.904 
Si -29.3161 -21.2018 -73.8546 
Si -29.2992 -18.4771 -76.5903 
Si -30.6551 -19.8369 -75.2285 
Si -27.9506 -19.8466 -72.5126 
Si -53.7292 -53.7594 -71.1209 
Si -53.7426 -51.0547 -68.3728 
Si -51.042 -53.7749 -68.3947 
Si -51.0164 -51.0572 -71.1041 
Si -52.3868 -52.404 -69.7473 
Si -52.3888 -49.6958 -67.0081 
Si -49.696 -52.4193 -67.0284 
Si -49.6494 -49.7136 -69.7398 
Si -48.3093 -53.7747 -71.092 
Si -48.3155 -51.0687 -68.3658 
Si -45.6091 -53.7847 -68.3332 
Si -45.5951 -51.0712 -71.0598 
Si -46.9556 -52.4325 -69.7124 
Si -46.9786 -49.7022 -66.9973 
Si -44.2837 -52.4552 -66.9056 
Si -44.2617 -49.7517 -69.6443 
Si -42.8832 -53.7786 -71.0245 
Si -42.9179 -51.1282 -68.2411 
Si -27.7886 -49.1531 -53.0476 
Si -40.1899 -50.9707 -70.8625 
Si -41.5355 -52.4766 -69.5968 
Si -41.4029 -49.6723 -66.9427 
Si -38.7573 -52.5147 -66.831 
Si -38.5887 -49.5466 -69.2731 
Si -37.5308 -53.8122 -71.0655 
Si -37.3269 -51.2216 -68.1675 
Si -34.9068 -53.8015 -68.3216 
Si -34.7968 -51.001 -70.995 
Si -36.165 -52.4612 -69.7501 
Si -35.3777 -50.53 -66.9582 
Si -33.4371 -52.4043 -67.1258 
Si -33.484 -49.5953 -69.6072 
Si -32.0918 -53.6596 -71.0563 
Si -32.0314 -50.8649 -68.2614 
Si -28.5101 -52.8482 -68.5641 
Si -29.4026 -50.9793 -71.0265 
Si -30.6931 -52.3983 -69.5283 
Si -30.7794 -49.6323 -66.6809 
Si -28.4986 -52.6255 -66.1704 
Si -28.0841 -49.5664 -69.6712 
Si -53.7379 -48.3732 -71.1216 
Si -53.7197 -45.9014 -68.3508 
Si -50.9899 -48.3706 -68.3609 
Si -51.0043 -45.6405 -71.0994 
Si -52.3264 -47.0734 -69.778 
Si -52.3586 -44.2908 -66.9615 
Si -49.6487 -46.9899 -66.9991 
Si -49.5855 -44.3161 -69.7569 
Si -48.2946 -48.3437 -71.09 
Si -48.2687 -45.6423 -68.3459 
Si -45.621 -48.3422 -68.3494 
Si -45.5704 -45.6083 -71.0679 
Si -46.9353 -46.9855 -69.7318 
Si -46.9464 -44.2612 -66.9639 
Si -44.2884 -46.9491 -67.0051 
Si -44.2471 -44.2023 -69.7141 
Si -42.8384 -48.3799 -70.9753 
Si -42.9623 -45.5407 -68.3008 
Si -41.0103 -49.0927 -69.3246 
Si -40.1096 -45.4848 -71.1756 
Si -41.4161 -46.6975 -69.6744 
Si -41.3913 -44.4174 -66.8629 
Si -39.1692 -47.1639 -64.826 
Si -39.9125 -46.1717 -67.8471 
Si -37.4567 -48.3064 -70.9507 
Si -37.5432 -45.5814 -68.2279 
Si -34.8684 -48.3496 -68.0371 
Si -34.736 -45.638 -70.9421 
Si -36.111 -46.9559 -69.604 
Si -36.2312 -44.1455 -66.8652 
Si -33.4669 -46.9405 -66.7198 
Si -33.4364 -44.2618 -69.5579 
Si -32.0997 -48.2768 -70.981 
Si -32.1153 -45.6173 -68.1525 
Si -29.4549 -48.3306 -68.1918 
Si -29.4152 -45.5725 -70.9498 
Si -30.7705 -46.9401 -69.5692 
Si -30.7566 -44.2415 -66.8009 
Si -28.1079 -46.997 -66.8229 
Si -28.1125 -44.1585 -69.5801 
Si -53.7465 -42.9115 -71.3026 
Si -53.7435 -39.9352 -68.307 
Si -50.7572 -42.9124 -68.3316 
Si -51.0216 -40.1838 -71.0819 
Si -52.3776 -41.5426 -69.6933 
Si -52.3232 -38.7765 -66.8832 
Si -49.5897 -41.51 -66.9014 
Si -49.6775 -38.8381 -69.6885 
Si -48.2853 -42.9078 -71.0977 
Si -48.2983 -40.1679 -68.3203 
Si -45.6052 -42.8823 -68.3259 
Si -45.6308 -40.195 -71.0624 
Si -46.973 -41.5449 -69.6935 
Si -46.9614 -38.8235 -66.9386 
Si -44.2221 -41.5377 -66.9728 
Si -44.2978 -38.8377 -69.6854 
Si -42.8554 -42.8585 -71.0652 
Si -42.9025 -40.1663 -68.3474 
Si -40.195 -42.8914 -68.2665 
Si -39.8873 -40.2647 -71.0044 
Si -41.493 -41.5174 -69.6808 
Si -41.6502 -38.7866 -66.9181 
Si -38.9511 -41.5857 -66.8012 
Si -38.9726 -38.5991 -69.5985 
Si -38.1343 -42.1482 -70.8246 
Si -38.842 -44.1267 -69.7593 
Si -34.8409 -42.8946 -68.24 
Si -34.895 -40.4356 -71.2267 
Si -36.1072 -41.7375 -69.8157 
Si -34.9985 -38.4123 -67.0783 
Si -33.4916 -41.541 -66.8414 
Si -34.2766 -39.0017 -69.3869 
Si -32.0936 -42.9175 -70.9577 
Si -32.2795 -40.0993 -68.2586 
Si -29.4784 -42.8197 -68.2013 
Si -29.5012 -40.0999 -70.9524 
Si -30.8555 -41.4618 -69.5865 
Si -30.8488 -38.8335 -66.7699 
Si -28.0865 -41.502 -66.8226 
Si -46.8983 -48.306 -45.6357 
Si -53.7704 -37.4751 -71.0709 
Si -53.765 -34.812 -68.2968 
Si -51.0084 -37.4683 -68.3115 
Si -51.0663 -34.8045 -71.0586 
Si -52.4072 -36.1509 -69.6772 
Si -52.4216 -33.462 -66.9105 
Si -49.667 -36.1349 -66.9208 
Si -49.725 -33.461 -69.6725 
Si -48.3371 -37.4894 -71.0686 
Si -48.3399 -34.7931 -68.3151 
Si -45.6355 -37.4715 -68.319 
Si -45.641 -34.7882 -71.0824 
Si -46.9885 -36.1341 -69.6986 
Si -47.0029 -33.451 -66.9263 
Si -44.3187 -36.1131 -66.9271 
Si -44.3185 -33.4171 -69.7024 
Si -42.9298 -37.511 -71.0462 
Si -42.9932 -34.7597 -68.3042 
Si -40.3549 -37.4063 -68.2211 
Si -40.3471 -34.6439 -70.8798 
Si -41.6571 -36.1219 -69.6586 
Si -41.6038 -33.4313 -66.9567 
Si -38.973 -35.9523 -67.0526 
Si -38.7745 -33.4307 -69.6649 
Si -37.3642 -36.9493 -69.8438 
Si -37.3279 -34.8998 -68.4557 
Si -33.5591 -36.7991 -69.1506 
Si -35.0338 -35.1881 -71.6412 
Si -35.5974 -37.5268 -71.2234 
Si -36.2091 -33.4584 -66.8283 
Si -33.5798 -36.3605 -66.6703 
Si -33.3222 -33.2967 -69.1124 
Si -31.7749 -36.9039 -70.7467 
Si -32.1058 -34.6783 -67.6215 
Si -29.406 -37.511 -68.0412 
Si -28.2351 -33.9734 -70.9796 
Si -30.628 -35.8243 -69.0612 
Si -30.7404 -33.4466 -66.2562 
Si -27.9415 -36.1033 -66.865 
Si -29.1245 -32.5268 -67.623 
Si -53.7901 -32.1327 -71.0502 
Si -53.7892 -29.4528 -68.2807 
Si -51.0815 -32.1225 -68.2979 
Si -51.1092 -29.4365 -71.0625 
Si -52.4422 -30.7859 -69.6721 
Si -52.4559 -28.0981 -66.8967 
Si -49.7346 -30.7791 -66.9196 
Si -49.7631 -28.0935 -69.6871 
Si -48.3979 -32.1016 -71.0485 
Si -48.4106 -29.4314 -68.3119 
Si -45.6755 -32.0991 -68.3148 
Si -45.7244 -29.3817 -71.0538 
Si -47.0437 -30.7576 -69.6803 
Si -47.0743 -28.077 -66.9458 
Si -44.3054 -30.7802 -66.9356 
Si -44.3759 -28.0495 -69.677 
Si -42.9795 -32.0315 -71.0566 
Si -42.9999 -29.4122 -68.3294 
Si -40.2189 -32.1033 -68.3256 
Si -40.2159 -29.319 -71.0179 
Si -41.5842 -30.7223 -69.6856 
Si -41.7134 -28.0786 -66.9052 
Si -38.9224 -30.7598 -66.9178 
Si -39.0237 -27.994 -69.4487 
Si -37.4759 -32.041 -71.0371 
Si -37.5697 -29.3987 -68.236 
Si -34.9142 -31.9431 -68.0943 
Si -34.7834 -29.3898 -71.0325 
Si -36.1706 -30.6805 -69.628 
Si -36.4051 -27.6751 -67.0043 
Si -33.6324 -30.5342 -66.7766 
Si -33.5446 -27.8849 -69.7788 
Si -31.7872 -32.242 -70.7062 
Si -32.4278 -29.2706 -68.3598 
Si -29.7601 -30.2045 -67.3858 
Si -29.2919 -29.2354 -71.0417 
Si -30.748 -30.3926 -69.6121 
Si -30.9207 -27.9858 -67.0008 
Si -53.5776 -30.0977 -51.3069 
Si -27.9302 -27.9566 -69.6069 
Si -53.8015 -26.791 -71.0702 
Si -53.7126 -24.1748 -68.2537 
Si -51.1034 -26.7702 -68.291 
Si -51.1776 -24.0686 -71.1261 
Si -52.4257 -25.4635 -69.7064 
Si -52.5619 -22.7183 -66.7942 
Si -49.8026 -25.3579 -66.9376 
Si -49.9777 -22.5071 -69.7729 
Si -48.4577 -26.721 -71.078 
Si -48.5682 -23.9533 -68.3911 
Si -45.7849 -26.7129 -68.3475 
Si -45.775 -24.0598 -71.0868 
Si -47.1587 -25.3463 -69.6976 
Si -47.2019 -22.6537 -66.985 
Si -44.4539 -25.3735 -66.9738 
Si -44.4948 -22.6737 -69.7205 
Si -43.0318 -26.6866 -71.0364 
Si -43.1487 -24.0234 -68.3626 
Si -40.4252 -26.6148 -68.1712 
Si -40.3562 -24.0382 -71.0938 
Si -41.711 -25.3352 -69.6676 
Si -41.8543 -22.6291 -67.0277 
Si -39.1051 -25.226 -66.7719 
Si -39.023 -22.7531 -69.72 
Si -36.7354 -25.9349 -71.2642 
Si -37.7755 -24.09 -68.302 
Si -34.4123 -26.8096 -67.8756 
Si -34.9317 -24.0987 -71.0074 
Si -36.1364 -25.17 -74.9111 
Si -35.8042 -23.0615 -67.5779 
Si -32.855 -26.8766 -66.0971 
Si -33.6944 -22.0651 -69.9285 
Si -32.0551 -26.6051 -71.0638 
Si -32.2911 -24.2113 -68.2526 
Si -29.3611 -26.6411 -68.2291 
Si -29.388 -23.945 -71.07 
Si -30.7203 -25.2919 -69.6432 
Si -30.4492 -22.729 -66.4267 
Si -36.323 -18.2087 -51.4105 
Si -28.0065 -22.6136 -69.7411 
Si -53.7539 -21.3093 -71.1363 
Si -54.0263 -18.369 -68.0638 
Si -51.2764 -21.2987 -68.0915 
Si -51.1943 -20.6563 -71.0168 
Si -52.7835 -19.8703 -69.2892 
Si -49.897 -19.8968 -66.855 
Si -48.2898 -21.3786 -71.0964 
Si -48.5762 -18.6067 -68.3156 
Si -45.8304 -21.3133 -68.3444 
Si -45.8663 -18.5598 -71.0612 
Si -47.1633 -19.9188 -69.6735 
Si -44.511 -19.9515 -66.9728 
Si -43.2163 -21.3486 -71.1648 
Si -43.1169 -18.6351 -68.337 
Si -40.6451 -21.4455 -68.612 
Si -48.2594 -18.6168 -57.2334 
Si -41.9396 -19.9709 -69.838 
Si -38.4914 -20.3973 -66.2164 
Si -37.6892 -21.0129 -70.7399 
Si -27.4658 -30.8044 -66.7688 
Si -34.9444 -20.8803 -68.1105 
Si -45.6436 -18.4732 -87.4163 
Si -36.0709 -19.549 -69.7593 
Si -32.9623 -19.7954 -66.8175 
Si -32.008 -21.0692 -71.222 
Si -38.2765 -20.8321 -61.6652 
Si -29.5043 -21.344 -68.4352 
Si -29.3062 -18.457 -71.1939 
Si -30.689 -19.7428 -69.8106 
Si -27.9784 -19.9419 -67.3185 
Si -53.7645 -53.7894 -65.6652 
Si -53.7194 -51.0936 -62.885 
Si -51.1065 -53.8469 -63.0229 
Si -51.0517 -51.0639 -65.664 
Si -52.4168 -52.4218 -64.3176 
Si -52.4264 -49.631 -61.5985 
Si -49.675 -52.5858 -61.7423 
Si -49.7053 -49.6922 -64.3145 
Si -48.353 -53.8055 -65.6957 
Si -48.4399 -51.1697 -63.0619 
Si -45.9319 -21.8042 -44.7493 
Si -45.6548 -51.0552 -65.6121 
Si -47 -52.4639 -64.3341 
Si -47.2152 -49.9757 -61.5768 
Si -44.2433 -52.5725 -61.5108 
Si -44.3656 -49.6266 -64.262 
Si -42.9212 -53.7823 -65.5174 
Si -42.9326 -50.9329 -62.7956 
Si -53.9125 -42.8668 -54.6051 
Si -40.1433 -51.1491 -65.5254 
Si -41.594 -52.377 -64.1475 
Si -41.2968 -49.5324 -61.6168 
Si -38.8762 -52.4474 -61.1597 
Si -38.6119 -50.0775 -64.1117 
Si -37.361 -53.7642 -65.3895 
Si -37.4168 -51.2834 -62.5146 
Si -28.1345 -38.8425 -69.5031 
Si -34.2456 -51.5149 -64.9136 
Si -36.0141 -52.605 -63.8164 
Si -36.1884 -49.7804 -61.1826 
Si -33.3816 -52.5515 -60.9073 
Si -33.3694 -49.6578 -63.7687 
Si -32.3671 -53.3025 -64.944 
Si -32.1232 -50.9164 -62.1217 
Si -29.4722 -53.979 -62.408 
Si -29.6076 -50.8862 -64.9948 
Si -30.795 -52.288 -63.4933 
Si -30.4661 -49.7356 -60.9261 
Si -27.8471 -52.9227 -61.1263 
Si -28.2327 -49.3829 -63.7745 
Si -53.703 -48.3722 -65.5651 
Si -45.7556 -47.1251 -49.3086 
Si -50.9266 -48.3364 -62.8331 
Si -50.98 -45.6467 -65.5975 
Si -52.3081 -47.0025 -64.2177 
Si -52.298 -44.3152 -61.3649 
Si -38.3536 -26.4649 -45.9286 
Si -49.6667 -44.2689 -64.218 
Si -48.3058 -48.3381 -65.6234 
Si -48.3284 -45.6231 -62.8633 
Si -45.7248 -48.189 -62.6122 
Si -45.5873 -45.6065 -65.5894 
Si -46.9741 -46.9606 -64.2509 
Si -46.94 -44.2 -61.6117 
Si -43.9052 -46.6421 -61.7087 
Si -44.2085 -44.1935 -64.3029 
Si -43.0378 -48.4575 -65.7708 
Si -42.513 -45.3269 -63.1231 
Si -39.694 -48.3781 -62.86 
Si -40.6604 -45.3288 -64.7461 
Si -39.2693 -48.3131 -67.0188 
Si -41.4437 -44.0927 -61.4126 
Si -38.7862 -46.8402 -61.3012 
Si -38.857 -43.9869 -63.9574 
Si -36.5539 -49.4938 -65.1125 
Si -37.5343 -45.3365 -62.5809 
Si -35.3495 -48.4414 -63.1406 
Si -34.858 -45.4585 -65.489 
Si -36.8949 -47.6167 -66.7192 
Si -36.1519 -44.0421 -61.2282 
Si -34.2418 -46.5937 -61.7819 
Si -33.5187 -44.113 -64.1127 
Si -32.1465 -48.2922 -65.2826 
Si -32.2619 -45.4799 -62.6961 
Si -29.5333 -48.0904 -62.3746 
Si -29.4337 -45.6374 -65.3983 
Si -30.8379 -46.8805 -63.9295 
Si -30.7345 -44.2375 -61.2359 
Si -27.9712 -46.8263 -61.1594 
Si -28.0423 -44.2615 -64.0833 
Si -53.7073 -42.9187 -65.3313 
Si -53.6899 -40.1931 -62.7689 
Si -50.9607 -42.9461 -62.761 
Si -53.7407 -42.9186 -68.3169 
Si -52.302 -41.5427 -64.0931 
Si -52.305 -38.8824 -61.4032 
Si -49.5728 -41.6047 -61.4192 
Si -50.9981 -40.1978 -65.5375 
Si -48.282 -42.9154 -65.5642 
Si -48.279 -40.2257 -62.8169 
Si -45.54 -42.8543 -62.9141 
Si -45.5882 -40.1846 -65.6014 
Si -46.9359 -41.5313 -64.2349 
Si -46.9203 -38.9154 -61.4209 
Si -44.2099 -41.4956 -61.5345 
Si -44.284 -38.8229 -64.2009 
Si -42.8047 -42.8515 -65.6175 
Si -42.8937 -40.1023 -62.8186 
Si -40.1443 -42.6011 -62.6452 
Si -40.3304 -40.1752 -65.6394 
Si -41.5421 -41.4536 -64.1415 
Si -41.5719 -38.8794 -61.3076 
Si -38.7815 -41.3728 -61.2192 
Si -32.3537 -37.2588 -73.6936 
Si -37.5024 -42.776 -65.4522 
Si -37.2982 -40.1791 -62.5277 
Si -34.8015 -42.7711 -62.6803 
Si -34.6872 -40.0689 -65.4262 
Si -36.125 -41.4013 -64.1205 
Si -36.0547 -38.7765 -61.1787 
Si -33.3869 -41.5642 -61.2235 
Si -33.4238 -38.7714 -63.9046 
Si -32.106 -42.8435 -65.472 
Si -32.0918 -40.1954 -62.6219 
Si -29.4538 -42.9319 -62.7357 
Si -29.4092 -40.1403 -65.4194 
Si -30.7725 -41.5134 -64.0664 
Si -30.8066 -38.7931 -61.2671 
Si -28.1532 -41.4958 -61.4579 
Si -27.9831 -38.778 -64.0663 
Si -53.71 -37.4645 -65.5334 
Si -53.6386 -34.7159 -62.8007 
Si -50.9976 -37.4978 -62.7868 
Si -51.0282 -34.7887 -65.5543 
Si -52.346 -36.1305 -64.1577 
Si -52.3347 -33.3961 -61.357 
Si -49.6538 -36.1425 -61.4101 
Si -49.7024 -33.441 -64.1608 
Si -48.3133 -37.4884 -65.5475 
Si -48.3406 -34.7938 -62.7979 
Si -45.6337 -37.5176 -62.7966 
Si -45.6499 -34.7793 -65.5323 
Si -46.9774 -36.1416 -64.1522 
Si -47.1042 -33.2845 -61.5316 
Si -44.1108 -36.3108 -61.5128 
Si -44.2755 -33.4513 -64.1597 
Si -42.9689 -37.4428 -65.5481 
Si -42.9073 -34.7673 -62.7804 
Si -40.393 -37.4168 -62.6535 
Si -40.2638 -34.7415 -65.5414 
Si -41.5877 -36.1229 -64.1887 
Si -41.5756 -33.5036 -61.3186 
Si -38.9691 -36.2494 -61.2798 
Si -38.9686 -33.3944 -64.1646 
Si -35.028 -34.9485 -69.3678 
Si -37.7438 -29.1827 -62.8287 
Si -34.726 -37.3776 -62.5057 
Si -34.8312 -34.7551 -65.4202 
Si -35.9719 -35.8018 -63.6777 
Si -35.7609 -33.1355 -61.0518 
Si -33.393 -35.9469 -61.1808 
Si -33.4328 -33.3628 -64.0994 
Si -32.0244 -37.453 -65.2546 
Si -32.0092 -34.6059 -62.6112 
Si -29.3091 -37.5273 -62.5724 
Si -29.1473 -34.8208 -65.2342 
Si -30.6275 -36.0832 -63.8898 
Si -30.3712 -33.139 -61.5227 
Si -28.098 -36.7848 -60.6636 
Si -27.6691 -33.3324 -64.1979 
Si -53.7667 -32.1075 -65.5261 
Si -53.7631 -29.4134 -62.7455 
Si -51.0132 -32.0641 -62.7599 
Si -51.0836 -29.4357 -65.5405 
Si -52.4185 -30.7626 -64.1356 
Si -52.3736 -28.0741 -61.3926 
Si -49.6606 -30.7111 -61.3767 
Si -49.7285 -28.0816 -64.1847 
Si -48.3584 -32.1126 -65.5546 
Si -48.3477 -29.4383 -62.8417 
Si -45.5923 -32.0767 -62.7984 
Si -45.6894 -29.429 -65.6076 
Si -46.9838 -30.7767 -64.1986 
Si -46.9382 -28.1603 -61.4998 
Si -44.2358 -30.7915 -61.3658 
Si -44.3279 -28.1165 -64.2379 
Si -42.9292 -32.1173 -65.5476 
Si -39.3604 -29.4547 -59.2968 
Si -40.057 -32.0574 -62.4605 
Si -40.3025 -29.4207 -65.5867 
Si -41.5093 -30.8616 -64.1397 
Si -41.454 -28.2334 -61.7488 
Si -38.1086 -33.0398 -60.9743 
Si -38.9931 -27.9428 -64.3424 
Si -37.6096 -32.0901 -65.5205 
Si -36.8729 -25.2592 -63.2705 
Si -34.7997 -31.8366 -62.9385 
Si -35.1284 -29.1803 -65.5481 
Si -36.4028 -30.6137 -64.1612 
Si -36.5767 -27.9403 -61.2255 
Si -34.3088 -31.0823 -60.5077 
Si -33.7507 -27.9291 -64.0354 
Si -32.1232 -31.7887 -65.3574 
Si -33.1436 -29.9793 -62.5814 
Si -31.1611 -31.2307 -63.1378 
Si -28.411 -30.0433 -64.6667 
Si -30.7014 -29.6106 -65.0551 
Si -32.2121 -30.161 -59.6329 
Si -44.0111 55.3786 -44.4429 
Si -27.5453 -27.9973 -63.9426 
Si -53.8136 -26.7735 -65.4947 
Si -53.8255 -24.0211 -62.7643 
Si -51.0921 -26.7378 -62.8216 
Si -51.15 -24.0581 -65.5047 
Si -52.4899 -25.3978 -64.1354 
Si -52.4669 -22.6767 -61.3906 
Si -49.7695 -25.3425 -61.5059 
Si -49.8254 -22.6765 -64.1559 
Si -48.4223 -26.7166 -65.582 
Si -48.394 -23.9991 -62.848 
Si -45.6505 -26.7657 -62.8777 
Si -45.8279 -24.0199 -65.6441 
Si -47.0612 -25.3914 -64.1991 
Si -46.9737 -22.7413 -61.3549 
Si -44.3169 -25.4825 -61.3327 
Si -44.5067 -22.6678 -64.2731 
Si -43.0755 -26.6992 -65.6082 
Si -43.1817 -24.0497 -62.9336 
Si -40.3547 -26.6127 -63.0156 
Si -40.4755 -23.8203 -65.5926 
Si -41.7632 -25.2803 -64.2878 
Si -42.9888 -24.0027 -59.7806 
Si -36.5085 -28.0685 -57.2018 
Si -40.3955 -21.1778 -62.6946 
Si -37.6111 -26.369 -65.3699 
Si -41.7541 -22.7783 -61.5421 
Si -34.9347 -26.6052 -62.4205 
Si -32.0524 -21.7947 -68.0768 
Si -37.2971 -26.342 -69.028 
Si -35.8841 -23.3199 -62.1758 
Si -33.8527 -24.4314 -61.7593 
Si -34.5191 -24.655 -68.6755 
Si -31.3328 -27.7913 -63.5471 
Si -31.8961 -28.4013 -61.1985 
Si -29.1577 -26.8995 -62.593 
Si -29.0125 -24.1893 -65.2188 
Si -30.6681 -25.2969 -63.8145 
Si -30.6709 -23.9049 -59.7138 
Si -38.6313 -53.8732 -47.8819 
Si -38.8326 -49.6912 -80.6193 
Si -53.8659 -21.2842 -65.4214 
Si -53.8351 -18.5079 -62.7066 
Si -51.1531 -21.3114 -62.7715 
Si -51.2058 -18.5125 -65.4608 
Si -52.5138 -19.9016 -64.0808 
Si -49.7924 -19.9943 -61.3917 
Si -48.5653 -21.3404 -65.5906 
Si -48.5452 -18.608 -62.794 
Si -45.869 -21.3373 -62.927 
Si -45.9975 -18.7452 -65.6234 
Si -47.2897 -20.0115 -64.1927 
Si -44.6114 -19.7744 -61.7477 
Si -43.1664 -21.3118 -65.633 
Si -43.7752 -21.4498 -45.593 
Si -41.1911 -19.3664 -61.1712 
Si -40.1817 -18.8817 -65.596 
Si -41.7874 -19.9803 -64.303 
Si -42.9484 -20.9053 -60.6121 
Si -39.3012 -22.0318 -64.6733 
Si -40.2355 -53.5919 -62.6652 
Si -38.7928 -25.3651 -61.8075 
Si -44.6369 -41.4483 -48.2298 
Si -41.57 -19.8288 -86.0725 
Si -53.6346 -21.2473 -54.4813 
Si -30.2162 -21.406 -64.5546 
Si -28.7432 -22.9729 -49.3312 
Si -36.3164 -19.6277 -66.6051 
Kr 76.1464 -22.0104 -47.2993 
Si -31.065 -19.3948 -65.2241 
Si -48.8995 -21.3136 -50.6516 
Si -53.716 -53.8429 -60.258 
Si -44.2471 -49.6941 -80.6194 
Si -50.8528 -53.6852 -57.3158 
Si -30.7063 -52.3487 -80.6345 
Si -52.4417 -52.6318 -58.7414 
Si -52.61 -50.4577 -55.8086 
Si -50.5708 -51.7338 -55.65 
Si -49.7982 -49.5762 -56.3737 
Si -48.4024 -53.7157 -60.175 
Si -48.0871 -50.2122 -57.8958 
Si -29.2868 -18.4491 -82.0218 
Si -44.2664 -49.5837 -61.269 
Si -47.188 -52.3139 -58.7218 
Si -46.7844 -49.4434 -55.9118 
Si -44.5302 -52.3678 -56.1002 
Si -44.2744 -49.5762 -58.7606 
Si -39.7 -27.1128 -49.4214 
Si -43.1248 -50.9652 -57.3182 
Si -31.5486 -51.48 -46.3651 
Si -40.311 -50.9644 -60.08 
Si -43.7905 57.8072 -50.1612 
Si -42.1476 -49.3495 -55.8956 
Si -38.2568 -51.702 -54.7326 
Si -39.2206 -49.4847 -58.6738 
Si -30.6592 -19.8187 -86.1105 
Si -38.122 -50.8539 -57.1373 
Si -34.4983 -53.4503 -56.9645 
Si -34.8917 -51.2555 -59.6106 
Si -36.4293 -52.4335 -58.1229 